# LAMMPS file containing particle data 

2736 atoms 
3 atom types 
0 52.7206038352864 xlo xhi 
0 52.7206038352864 ylo yhi 
0 52.7206038352864 zlo zhi 
0 0 0 xy xz yz 

Atoms # sphere

2735 3 4.1824683175770705 1 45.23890700663333 42.49417063472351 25.64194124123792 
2673 3 4.181233975620179 1 11.464423078226542 7.630837040533448 6.387512658730015 
2720 3 4.164922925522193 1 15.270114470350961 23.963842386967723 31.160809224313702 
2679 3 4.156303580194192 1 36.61079948468565 33.31066123288568 27.22075900900906 
2662 3 4.1534917997716745 1 26.674397555763132 45.58740928819627 18.16628818052739 
2682 3 4.150818905299209 1 31.280513572356785 24.278323154531638 35.43406324258018 
2674 3 4.143548427389427 1 23.47162972820672 49.178851721938024 48.260979284603955 
2708 3 4.139166676230491 1 27.6386890051397 46.7926051904818 33.80987717355266 
2683 3 4.128994444599562 1 26.69339742824283 41.817925904283804 40.92533607871641 
2690 3 4.119619594172435 1 46.09935081452759 17.702457766792048 11.781167679386453 
2730 3 4.117465375925586 1 18.491931228593984 39.69388297153779 34.027325259548064 
2703 3 4.117053001301448 1 46.02660133401482 36.79929354354705 46.97502453360329 
2668 3 4.116343612150771 1 27.67464606540365 19.037841991557137 11.492366616138838 
2663 3 4.113503473059204 1 9.825853766889473 32.22852133075429 44.17774069620272 
2681 3 4.112880691371764 1 22.883169008456537 13.321602560663633 30.079949737723105 
2697 3 4.108044602540825 1 5.862629952943783 13.313698651276228 35.16877648549133 
2710 3 4.107290967136821 1 38.076373082820375 41.733833903699534 3.6075328739333505 
2675 3 4.103434312286447 1 13.707533370407056 13.934345874765661 17.944386490715512 
2723 3 4.1005609124857 1 32.153378607932694 6.749661653171231 14.151139823147256 
2705 3 4.097696830857389 1 7.66817511050464 26.709607877812996 14.895917803227267 
2728 3 4.096724193298415 1 34.55337538275594 48.26626533688985 11.632727157439483 
2726 3 4.096234922838837 1 5.582218342475451 39.80454472459784 43.34688475518062 
2702 3 4.092947588968704 1 39.158820189384265 11.894828483597522 2.5730315307939553 
2717 3 4.085734503100387 1 13.710730758599498 23.580412756558836 2.473802197719048 
2718 3 4.085130606144524 1 47.674949003652074 36.57685500398715 11.70416273805952 
2715 3 4.076737837429058 1 3.4222903319111966 17.937322606941095 42.21747915783631 
2688 3 4.07575053294078 1 6.475834158638049 25.122660049692467 47.599446276108274 
2691 3 4.073301451456403 1 26.83794500810164 19.895162848834218 48.39074480635193 
2684 3 4.070049777797219 1 29.801664086826896 7.403887932932678 42.59634994595355 
2699 3 4.068116888281662 1 50.555474743703364 15.575769702705005 27.62891966978633 
2724 3 4.067797940148147 1 49.26456693889202 48.89265076609408 2.711877006866022 
2671 3 4.0655821290144845 1 11.084117979697353 27.577753795605833 24.095279934723685 
2685 3 4.064126281079685 1 6.766607827805961 40.273458109616584 20.583903036489602 
2725 3 4.059511076692493 1 6.405439034168368 49.50752546952618 18.17771974622121 
2661 3 4.059401297579786 1 32.00110375680065 13.487330293584355 35.58814798442455 
2657 3 4.058962618100943 1 20.00643059134756 7.290201135082112 40.26529506124292 
2721 3 4.057495508240167 1 18.92525974317938 36.99004392308081 49.53757256565757 
2719 3 4.05716526525934 1 6.526700540670266 20.36863196965073 6.551193111913932 
2694 3 4.056760596141858 1 22.22416579331715 37.21981296492816 23.03234335454895 
2714 3 4.056299575833426 1 20.193882379151187 20.28751026893866 24.902748413358058 
2711 3 4.055819773880072 1 3.659976492292813 31.988285678714952 2.098539289562089 
2672 3 4.051992766255428 1 20.341794410639274 4.209014284631854 32.33659704270121 
2716 3 4.051183355766251 1 11.385145697906182 5.3078136034499686 25.127915339892787 
2709 3 4.050241079701962 1 49.7018660015546 29.89876050068472 27.257269105735872 
2736 3 4.046509574706815 1 43.75541975019308 42.340033236577995 38.46007553034354 
2727 3 4.045495141469125 1 42.72882988899511 36.50668180221615 35.78487430462728 
2686 3 4.0445817887144315 1 49.89925918673133 31.450267944750095 40.57341628422763 
2695 3 4.044230004041559 1 13.510256947240014 44.10106518422414 41.75176321322529 
2729 3 4.044008396082129 1 48.3518116609889 21.971247769478193 37.67517307034314 
2689 3 4.040473840363561 1 22.10127018901399 12.18076065331484 9.655433845907938 
2704 3 4.037688500039711 1 39.4470440402209 10.286849482843325 41.37086103137526 
2698 3 4.035413662999312 1 46.17873139568788 29.15056389109636 6.607765576686177 
2700 3 4.034121729283167 1 31.078363107474026 2.16063247057798 23.00401172993158 
2712 3 4.03298423696919 1 28.316657774615695 42.33429212969751 7.569455586192579 
2693 3 4.032013710782716 1 3.833756837491797 11.760875704119577 15.338749266071055 
2687 3 4.030635739772049 1 40.86878798780604 10.122558292460162 13.795337181857938 
2692 3 4.029998312952424 1 42.23673613952747 39.28539374425206 12.659946448358195 
2732 3 4.029829848094515 1 2.5259784261672635 5.47943206143829 50.224032421894634 
2707 3 4.026843243586146 1 38.73528609068726 7.364263496573541 24.0075304885373 
2713 3 4.024041913585167 1 48.06570832946751 8.036746930612077 34.082134760594464 
2659 3 4.020794592847904 1 10.23390953205582 5.474965728140046 35.62254581443825 
2722 3 4.02043051424287 1 48.26739228919002 10.164463906121053 6.502829620212933 
2678 3 4.0173159007633386 1 36.62600100579444 48.64076425519249 48.324031349878695 
2680 3 4.013432579111008 1 41.26262994346289 20.425363925899745 50.053512475494486 
2733 3 4.01032987761564 1 28.981549797031963 30.33720597015614 12.816563507551882 
2660 3 4.009573694767289 1 17.60605979484569 33.72957937604709 4.018797571964295 
2667 3 4.009284475595244 1 32.947076221198756 34.53234158096545 20.15863021829547 
2666 3 4.007548052776092 1 4.8891189826467105 8.609108832259121 27.308100934902694 
2731 3 3.999190575550403 1 8.785381192349627 35.68316701170801 30.083529500585886 
2677 3 3.9924643603077357 1 26.35103041754945 3.0129374628545493 2.5765049861395104 
2696 3 3.9901829142029026 1 43.73548927290962 24.88227314576768 31.878164197204907 
2706 3 3.9893156146789637 1 20.9865541365753 21.65608813207998 13.50850954370759 
2676 3 3.985774736428272 1 28.955964238672962 31.505411153486925 41.37181711976517 
2658 3 3.9820708317220985 1 19.49299712033256 14.78555488257456 44.99232152320396 
2670 3 3.9810622786380554 1 10.906478722551878 22.498913462664134 40.55653518534069 
2669 3 3.9736351953672844 1 2.634540489918601 3.1768060551602835 42.94635739358472 
2701 3 3.9727730611111385 1 40.144330173443684 4.318772922401292 33.35162728951119 
2665 3 3.9640373560948974 1 14.518893775699262 41.80136684304348 6.952764396542096 
2664 3 3.9616449871580026 1 24.638863258902415 29.24535433301451 3.743233358386274 
2734 3 3.9269515253966576 1 4.068291396390066 42.379375532799195 9.245936369884246 
2575 2 2.6784047872380534 1 48.13274048288579 36.358161375421645 25.426458711260075 
2465 2 2.642367697909065 1 38.0209295361362 30.38167617913267 48.33196823582694 
2649 2 2.636832819801504 1 35.23182814859815 35.278498436198475 36.192199201688744 
2461 2 2.622927850575794 1 46.73307608518678 17.880426248228403 19.535027249185788 
2464 2 2.621689247295878 1 16.580239403323944 8.185310076546426 50.25656542026569 
2602 2 2.621685460474792 1 48.90554282478689 45.282692536307174 17.977217071064757 
2447 2 2.61749595741833 1 21.826046093820263 19.12632061549954 38.95552167275048 
2568 2 2.610687189994061 1 1.5707852424327422 40.08541287490486 24.000355156411704 
2460 2 2.6065620082395418 1 14.689153367183607 46.97244433490785 16.67559959283742 
2591 2 2.6034225835521942 1 1.4869682152265364 33.71421948418892 48.80002424494426 
2471 2 2.602783257380485 1 6.07778051448388 33.05404767398147 12.374249900398382 
2615 2 2.599850293453211 1 10.364499387342539 44.556637726431745 30.008316782956197 
2544 2 2.5984241328688586 1 49.93009458241427 14.21973557043118 41.13690074890798 
2620 2 2.5952776326475986 1 16.84059845877902 30.613221716149138 31.166921377887146 
2583 2 2.5931731680730743 1 15.264440347048046 12.607456764292108 29.533717936849822 
2543 2 2.5929005523020927 1 26.588191653451606 39.21246976394287 48.67871930494551 
2535 2 2.592004139706682 1 20.560930089823007 42.690914760674204 42.38402695730855 
2623 2 2.591740167255483 1 49.47570393650929 3.6984302732918075 44.55659856270218 
2556 2 2.5905931557822393 1 43.39393862699505 45.510563827107624 45.145053936637865 
2604 2 2.5902854858405906 1 4.433019189223222 12.688700567006745 50.75636401952571 
2586 2 2.585605227829406 1 2.0646379375793202 20.319506011826455 36.264774069701375 
2443 2 2.5848719571446606 1 22.041140981199934 44.91013739902557 2.5070315747689627 
2449 2 2.5845212329140064 1 4.080255087348421 47.741834774871464 37.99872106187666 
2640 2 2.5843217066611173 1 31.768303722847772 40.69448660871041 22.293020868425458 
2639 2 2.581807027050422 1 31.057724160124195 13.172626481531264 21.996177111101176 
2580 2 2.5812098996919257 1 25.7396498879669 9.149371222784406 35.223061533128224 
2478 2 2.5811452936927024 1 17.289268560792053 8.474924918943117 10.377648841118322 
2541 2 2.5802036093954825 1 42.97709084503535 50.494051530028855 8.856049734438091 
2612 2 2.5784690178976803 1 9.398154419880834 15.25518957563298 12.006838095644966 
2613 2 2.578058796514275 1 24.65960046935753 5.327611644920054 24.13839544022596 
2527 2 2.576468801688364 1 38.15750761689634 24.512570514750742 32.947607658938644 
2504 2 2.576312477034344 1 39.52948251257702 44.001317499175684 50.292835396466565 
2507 2 2.5758636143512286 1 21.475424403425723 9.373523093375487 23.75483302553551 
2468 2 2.574832341561619 1 5.243002497987841 47.52771719551377 48.68814685808446 
2566 2 2.5735123681960888 1 1.3568409656762712 42.08710977968752 33.05082287733636 
2428 2 2.5727807123386968 1 1.9508813727337804 24.99572467759774 33.85499208189579 
2492 2 2.5715359519151155 1 36.65781050041369 47.08568656189407 35.11756793752399 
2539 2 2.5713865456667184 1 36.45063094920497 6.465654252629129 6.70152998734037 
2551 2 2.571222060860645 1 1.6684923895103223 44.44512891560693 41.92612997153394 
2408 2 2.570729366791094 1 37.855064922888154 18.08120697661111 5.527545349672197 
2545 2 2.567847793907767 1 48.76957968429392 26.972747701641993 51.18775664670072 
2642 2 2.5635741737749655 1 18.878694944091606 45.75689378337489 23.35895078631772 
2432 2 2.5634902852104595 1 14.450753289641039 16.500739869007532 2.5384218658390365 
2501 2 2.5622843618568685 1 41.04568705943886 17.234402968733928 43.32877663382815 
2503 2 2.560310618146873 1 23.764913684779412 12.53688903584653 19.35826341829733 
2419 2 2.559033368885976 1 41.18905894010619 27.47455514668866 25.325263074116094 
2598 2 2.5587053059352685 1 30.730264691827156 25.86752244676756 2.972821774160064 
2442 2 2.5569354334534817 1 33.09563158521496 32.44933757390548 48.822721561369164 
2629 2 2.5550813555569927 1 14.135034967063921 1.7992413498754827 31.860492411613187 
2616 2 2.5550392483866204 1 48.12955566277125 26.638450849217268 1.4861737134907214 
2517 2 2.55222414368609 1 31.3169814561699 24.569602000491695 19.230311839028957 
2534 2 2.5521145854239995 1 49.74944974300818 49.79082385444396 14.709459129160717 
2420 2 2.5510350149892607 1 4.942974013639301 48.33083651638919 25.181968295055153 
2563 2 2.5501023431111363 1 37.376578011790045 39.62564536270047 17.361791628225795 
2444 2 2.5498343946326 1 36.996681815053364 37.33608448694183 48.442534254126656 
2555 2 2.549600910180688 1 12.002770926156607 38.69895213442974 49.02241463107588 
2625 2 2.5490827314209787 1 22.299859084985307 18.06938318733587 50.757790773742386 
2587 2 2.549022382044608 1 12.929223872770944 4.243491643230708 12.46356716034176 
2537 2 2.548797266515724 1 30.057112239765058 50.32459321348562 48.66942035017549 
2433 2 2.5478247907334217 1 36.15900329220412 25.47639247591694 9.389932229930237 
2482 2 2.5472744201866266 1 29.502016842745622 10.206732442507938 28.462934067535897 
2425 2 2.545850803208872 1 13.562589232195744 26.491905555018985 9.998771896457797 
2528 2 2.5442627439925976 1 46.118165486743166 43.791667327232204 8.24220928370146 
2524 2 2.5435190704061315 1 11.75790455723364 42.197002055425415 1.8253699903925762 
2540 2 2.5431609347752415 1 16.239336979277077 20.711824002534584 49.77907683093986 
2469 2 2.5426580188938557 1 33.325502038975095 26.51675017736127 45.386444766479435 
2562 2 2.5413130669265906 1 46.33469060912889 7.467939498908303 48.391875142755275 
2480 2 2.5408564590009393 1 30.39776013782881 12.56026670388746 9.169272951540854 
2423 2 2.540601868060089 1 6.729393004757159 21.112676621530543 24.074933678432668 
2608 2 2.5398345868291443 1 9.520750430679575 3.778334575342634 42.0885649446513 
2550 2 2.5387279536830043 1 20.042704239062815 1.8168721586798213 50.33365593404129 
2426 2 2.5378636360771893 1 2.3509689637129627 19.292470553100394 22.189368150992003 
2407 2 2.537782157035048 1 40.04459692714184 46.07775761412541 18.313131732217965 
2529 2 2.5368387511701624 1 21.083413246039353 16.3991264989392 3.537212561468194 
2470 2 2.5367023197074197 1 3.461545805721523 4.658030347039685 6.258171898694896 
2521 2 2.536696337798932 1 13.01637525767614 16.659014485088758 45.70500102704288 
2624 2 2.536544461035913 1 34.9694991658919 11.405240008748466 29.27827509305461 
2609 2 2.5362695847066754 1 28.488588602170804 11.872217480706109 4.371014571459719 
2582 2 2.5362368784649325 1 49.54314353546497 5.500652374722595 21.400474574816506 
2654 2 2.534063742487321 1 38.90810128970033 34.410032650146746 1.684589568900596 
2606 2 2.5338429921510297 1 1.9647567603610485 32.06650445009306 23.264391380095972 
2546 2 2.533698536607758 1 36.6461132780778 16.184721181027818 12.404658584624123 
2437 2 2.532768611695069 1 31.428335027630173 50.363362630940145 21.89524020644344 
2485 2 2.531847408314593 1 12.591496098902521 24.8701953694919 51.29475474554221 
2417 2 2.530761919348405 1 51.33725999080963 13.020798541942845 16.358023519616594 
2491 2 2.5307538312278814 1 17.403464394223814 31.860584367722396 42.93847591809758 
2532 2 2.530013624085958 1 2.8274989415664757 25.71997553196045 43.547710557283395 
2560 2 2.526344997508895 1 27.693098130997658 37.74160040339858 18.546240015784814 
2506 2 2.5250690111325973 1 9.897905574690135 9.435547122130274 44.881958687442506 
2410 2 2.5242796265537253 1 1.5392829977870948 47.82615711180675 14.344189589646815 
2627 2 2.523922908839323 1 35.01260658708656 22.947785522027573 50.97609152891916 
2581 2 2.5233306382358114 1 9.450183743827582 49.90175781000822 37.79834107113121 
2650 2 2.522833798896431 1 13.497450144111657 48.98629757647263 2.7031686830196344 
2502 2 2.521563059028468 1 25.62398537024352 37.187903259459915 31.312221456044558 
2479 2 2.5215011747001936 1 23.633608251617904 8.172279885254158 51.06136993272336 
2481 2 2.5213335392581997 1 1.8626159365929391 10.602170848143905 35.43610526154833 
2516 2 2.5197740878084494 1 39.6220004954834 32.106570855809075 17.436278202581306 
2488 2 2.519688997928308 1 38.290988862266175 14.615225774679713 26.968647084937313 
2509 2 2.519614190225747 1 20.556613582711986 48.726368383103484 34.14806241744011 
2567 2 2.5181394812219655 1 44.66657377740538 11.765535106009386 22.96631004036185 
2440 2 2.5181051089183533 1 42.31704865287618 23.725769808025646 27.61501132818423 
2638 2 2.5158178123602357 1 6.221278475669491 6.407749590252648 14.727546557223397 
2414 2 2.513926061670657 1 29.059886919567507 49.25250380571247 27.223331489396266 
2438 2 2.51364758633521 1 44.3990350871983 16.794819108688323 5.541929423908457 
2579 2 2.512472360253578 1 22.772542284370473 30.46235542092652 42.48472757073992 
2411 2 2.5112255678861337 1 28.49330127561326 41.91335936405119 23.79008611927817 
2510 2 2.51107343090388 1 4.497927998518212 6.183725592495284 22.476291688142993 
2445 2 2.510637014668456 1 33.482246769815866 41.45864681483898 32.27888293006309 
2607 2 2.5104127120937654 1 28.41431883876806 3.6653798432528752 48.4210400333864 
2462 2 2.509948608581716 1 46.70324520078671 43.0561348668779 1.9493244736181 
2494 2 2.5090340877431663 1 24.75096472510414 19.188731202749366 5.886250307922051 
2646 2 2.5086640775429094 1 19.631650884821465 47.15133818488202 10.792421242125073 
2508 2 2.5080245484495234 1 5.5434181481871425 29.987524631000582 28.626643285714145 
2621 2 2.507939973158538 1 17.65810015630236 45.02431161794961 48.24351528428627 
2475 2 2.5075869362826992 1 37.56056530079714 15.385179095625917 17.929994812833996 
2588 2 2.5065506701122513 1 14.317216106196302 49.8052894778141 11.996954943859231 
2564 2 2.506389138700763 1 25.389277122628727 25.802131909249805 20.158026704399816 
2577 2 2.5058267065837616 1 18.505166052015422 32.18342410919401 17.36126231979201 
2457 2 2.503755735063686 1 51.372394152666956 24.31273249552131 16.070006208590634 
2552 2 2.5019796843143673 1 9.016709409048522 14.80680131513104 48.5829956932453 
2578 2 2.501030580009671 1 8.625475002700364 44.51852485206011 47.34366944645424 
2636 2 2.499400625660272 1 36.50160694358287 21.928971171477592 1.469539145706362 
2454 2 2.4991108629449594 1 33.60772437684554 51.119193013117425 30.674314469794325 
2594 2 2.4981588871025533 1 10.313885931933168 8.06711389353485 1.2534797733152057 
2522 2 2.4971733115606902 1 45.99506610455444 1.7928627530272367 4.447785191269592 
2455 2 2.4960021134011736 1 35.22138922639176 34.86279558485775 8.366775381476891 
2446 2 2.491437360644176 1 28.81623644929216 12.178948485123625 17.127583924000028 
2542 2 2.491416868998198 1 27.48128220307207 13.88229100992751 44.80214025388359 
2520 2 2.489382050617576 1 39.52180763472375 26.35906956005128 18.13936435377223 
2409 2 2.4893449346452083 1 34.068495815500086 41.1175253990854 49.103307446289165 
2427 2 2.48911126178247 1 44.688757490175924 26.709185688540522 42.555899066170575 
2599 2 2.4891076465402118 1 48.39880818230541 26.14475919643083 22.67541846272188 
2635 2 2.4889763368553703 1 22.287080103385186 31.54976191304099 27.706255021001127 
2630 2 2.488258011844551 1 16.48192917309495 51.163758854084314 26.561300395710216 
2495 2 2.4876661263206286 1 31.96575364850147 40.97007245529583 17.590421239395123 
2619 2 2.4876210959083545 1 10.949815529277217 17.63844192238354 40.312321356253705 
2632 2 2.4867287929773654 1 33.32328219774761 36.937656197800514 41.23207038428898 
2592 2 2.48650386457938 1 8.271827052020456 49.85998436592973 5.633636121482521 
2441 2 2.4858167537644236 1 31.40081554231036 5.604896394153626 35.989976248255765 
2617 2 2.485661959944084 1 11.19384260401721 33.49777313171644 20.258433454660683 
2628 2 2.48565473048569 1 16.048003026228567 25.766201844653725 44.605994457222025 
2435 2 2.4854616616501333 1 43.612329704857856 5.264852578472769 27.93818183248427 
2633 2 2.4852241819952554 1 17.70222555770355 27.900313618292277 5.469451358438608 
2434 2 2.4847070396759063 1 31.254186393533356 1.5004819970039496 32.210127819685184 
2558 2 2.483598928485525 1 38.54664517890998 31.09764261169315 37.32664479760033 
2448 2 2.483376232448685 1 6.728130590685106 39.72814572335227 50.38482056963956 
2643 2 2.482237957925778 1 11.161496825860093 4.460740661158057 50.21907581429451 
2593 2 2.482085986987892 1 37.28096856890248 28.58743893355185 22.176758770171645 
2637 2 2.4813325677736926 1 23.091408260084886 38.799639785091095 17.59953515991096 
2605 2 2.4812992651174435 1 20.42836169020349 36.873812338215984 41.375132435872715 
2473 2 2.4803991974429542 1 37.17970249430551 33.48808853556925 41.6446356871996 
2493 2 2.479932589136219 1 4.201585100141436 50.76694398556143 33.24602826164989 
2452 2 2.4780016399016143 1 38.23772438711577 19.28425598116249 32.53258774417048 
2597 2 2.4770723176143785 1 17.61337816346395 18.15314880233474 33.40802420911368 
2652 2 2.4760495748943336 1 32.23574791708016 28.67986859446225 24.21996344756921 
2589 2 2.4760448187332362 1 6.943496298410326 13.482004444909805 4.609633485689577 
2554 2 2.4759887436516994 1 20.122508711162165 1.693603663149361 18.336447175304286 
2511 2 2.4751448833228618 1 10.862047629812105 37.09290338592995 13.39993505141054 
2569 2 2.474842926670368 1 21.878896663703404 45.93179440298667 38.38836104160012 
2573 2 2.4746861361807113 1 33.73124540686742 20.94905765718797 15.595100738840747 
2439 2 2.4738816425127634 1 31.501788173073116 16.745453938197567 4.796937054522612 
2463 2 2.472977162413658 1 27.360699521848197 38.27494797858888 9.203062706249485 
2515 2 2.4729142947886227 1 21.494673132230798 50.75856950100688 17.916641824664886 
2431 2 2.4726313870239047 1 6.745389351045298 24.469176619354858 31.383949583990955 
2500 2 2.472069608243656 1 37.24639939969689 21.788668521694092 27.748672244970365 
2571 2 2.4699088059287955 1 23.080075848725357 26.413271048266306 34.56841160662233 
2576 2 2.469091506115881 1 13.061547168216256 47.100349327429576 34.60509359447476 
2476 2 2.4688061533108323 1 19.920808023733137 50.156375969273576 5.59239260371999 
2477 2 2.4683421395575653 1 38.86245994538155 27.704460236196763 2.1870787126523337 
2497 2 2.4681826473687782 1 32.34798007956537 14.635576377939831 42.50074706024014 
2498 2 2.4678979603432554 1 2.2621583689478335 50.47253473138785 42.11029103865381 
2648 2 2.4677856908438374 1 40.38677099083755 48.02096946764293 26.62041401759322 
2418 2 2.4675939808022784 1 29.190596615355588 10.110063317488665 49.23153821671528 
2548 2 2.4671395451218414 1 11.980716055203619 34.87208106599221 5.8777090491397495 
2557 2 2.466951805820554 1 2.7059828476236434 3.577486956558244 17.440640729102412 
2467 2 2.4666576024937923 1 4.079085088655355 29.504468601059944 9.026487834128398 
2412 2 2.466374541566344 1 9.755974384724393 19.223507585247233 18.797550500307068 
2458 2 2.4642746351149896 1 11.58923908560687 46.84255200932693 21.13791678441541 
2453 2 2.4639662480249416 1 22.49833346251271 31.00261069393056 49.60870710740865 
2549 2 2.4628969791896482 1 43.03634999070658 23.6059592739031 3.365877777336851 
2466 2 2.4623059520298667 1 25.861851908243903 33.08633359437697 19.58588536689297 
2413 2 2.461927620947041 1 4.548207090082661 12.441942621318708 42.64326113105244 
2422 2 2.45968469400071 1 33.37332128196861 18.23449760900852 46.692720532142786 
2644 2 2.459403075701352 1 38.708054036052474 38.159123779749294 22.123325082077486 
2570 2 2.459143232977542 1 46.51359346195358 14.505534667891279 35.61633255227352 
2611 2 2.4591154213371595 1 41.87842476159901 24.686550433152235 13.44901044911743 
2600 2 2.4588667439499945 1 11.525283139688321 22.687022895296007 23.263141936897437 
2436 2 2.458671864283873 1 21.009564702429223 1.3754910578888542 39.613296206263314 
2559 2 2.4586713528505486 1 31.36687289716783 32.643818228821566 1.643460985847282 
2647 2 2.458091414468583 1 34.41942998714036 2.95187804690279 2.8572685945719343 
2513 2 2.4565768622294595 1 32.72989357476093 48.83751311229953 43.77236904176217 
2531 2 2.455521190443899 1 16.868247353712174 31.95506439793747 13.19861674632466 
2421 2 2.4554163537894627 1 49.165615777833445 46.131466365142444 34.3959057751042 
2553 2 2.4552487303482144 1 3.205880476331778 4.232082507875263 33.90792896138398 
2474 2 2.4538365999586156 1 1.536337134864719 36.91174628247166 37.96957445680016 
2456 2 2.4526491237032384 1 24.630392879405544 22.29197068213026 42.17767508214448 
2561 2 2.452219854976025 1 42.55483732713428 3.354172587871255 43.19977499498267 
2622 2 2.4519847071529597 1 28.12128808690605 34.10000670567594 33.511810954307705 
2596 2 2.451721069160947 1 43.24629278236547 31.791536352028594 41.38835017042993 
2530 2 2.4514716324263146 1 50.417664528349874 6.948056726474334 40.61812051608748 
2603 2 2.448987610085467 1 30.17454157716183 20.953593906204233 25.33319324512429 
2459 2 2.44856779524755 1 27.36308252234528 37.674659186308205 2.4786738188174997 
2584 2 2.44841587427817 1 44.94653317625156 33.25728826720444 18.895206037315717 
2496 2 2.4464449312499097 1 16.93476661262891 17.406669785348498 9.432309668282485 
2653 2 2.4456069724161646 1 36.636015080797115 43.375462594119234 22.373409653466318 
2656 2 2.440967415212679 1 34.00646790281316 21.578973616501607 6.715598173541532 
2430 2 2.44095440281764 1 17.198844810629264 5.716769335109972 17.273606092463208 
2651 2 2.440900874981878 1 30.36753869136323 8.416209084360148 20.485272032776553 
2536 2 2.438841684487545 1 32.85227994661803 1.871931652025581 39.74473681308202 
2450 2 2.438457908997219 1 28.823641913760845 39.664511245062485 34.34981437548142 
2533 2 2.4352865277266886 1 23.930302819024572 45.10314056822635 24.144566857261204 
2626 2 2.434912192492969 1 3.3325431787124744 31.95964552757088 36.302318173048896 
2585 2 2.4334429702378766 1 15.218971678699436 32.65833455282979 49.003491484483355 
2489 2 2.430692784984181 1 8.729668627590708 1.6819649846424136 30.01720601346905 
2483 2 2.430269295475208 1 14.49347300191716 23.345414637531405 10.292956848740904 
2518 2 2.4292242919574156 1 18.721440462509445 23.86847185290769 38.84639231607101 
2486 2 2.428817689081506 1 18.953206775051925 44.66824762678926 18.25141802208399 
2595 2 2.4274016636394453 1 33.43900299170847 3.6607047996746274 50.47056209398774 
2631 2 2.427326030100433 1 17.015068699969646 50.2984932913252 46.00108499850733 
2655 2 2.42658377522507 1 51.39460857655873 8.890037785168763 12.863802025815017 
2424 2 2.426557085414952 1 17.589903095014773 41.48459750278915 12.75928905718116 
2645 2 2.424872468248908 1 49.08143813831104 50.210210097301385 29.104720556998977 
2451 2 2.4239921704107887 1 34.38697433383874 29.352161772093904 5.299127477167675 
2429 2 2.4233709748874093 1 33.79737332035756 15.341179447651298 51.31653085230691 
2641 2 2.4229350532209137 1 9.433334474572717 39.45754524620104 37.37446372298935 
2526 2 2.4221834338474317 1 48.60024439764582 7.854220560145408 27.58019189340831 
2614 2 2.421958611346104 1 25.187985869365946 6.1815423760148205 11.35704515854091 
2634 2 2.421509908190377 1 2.525014674847788 32.88722386357806 16.80683293799801 
2538 2 2.4198232677235185 1 34.39327449346968 42.142337621731265 41.63844392102792 
2512 2 2.4154468208786994 1 1.6650561296035877 1.2348876668546833 28.804497005436716 
2610 2 2.4151858839919664 1 47.58359814265866 50.082473839980906 40.09140037807111 
2514 2 2.413919605947606 1 23.817682853012734 27.224592269978164 10.142413752068487 
2525 2 2.4139005230085715 1 27.958841521328434 7.058173994032698 16.140160670442867 
2415 2 2.4131046123464883 1 34.99069761289153 51.29399631637721 2.4070294758179855 
2523 2 2.4111429365354846 1 46.68470797155134 23.247400358254257 45.08612360186485 
2547 2 2.410168990477665 1 33.32113438509445 23.19974432023867 28.98824425100914 
2499 2 2.408997436723134 1 50.32223365094164 40.418616878920915 4.545168416040059 
2574 2 2.4085180387010565 1 41.466565540985535 49.15561766466943 32.539118422764105 
2601 2 2.4016833757322757 1 29.61851636730943 17.553099590657023 29.843711990070748 
2505 2 2.3992134873275828 1 2.7813163729236674 48.05740559532555 5.003125380078548 
2519 2 2.398541816319543 1 7.561915597942001 50.84011536969311 43.94134358225367 
2590 2 2.3980522061043206 1 42.53321965050791 17.758943922851333 29.762579742502 
2472 2 2.3937677336782466 1 33.64880002995185 40.809840744611286 11.222460630687962 
2487 2 2.3927214245246984 1 14.371544336786052 5.857213363444324 43.46523790872833 
2618 2 2.386007995224137 1 23.696545507953928 1.7380264332925077 46.17518754469583 
2484 2 2.3782920411877018 1 10.972460049663797 1.5476782789344552 16.215607456470913 
2572 2 2.3745100175463567 1 17.92390158510393 50.93321407951162 39.242120700516885 
2490 2 2.3566192374343995 1 24.0637430645836 34.756295397929364 9.731991268474726 
2416 2 2.3559527026325706 1 34.015023544077906 48.713575299141866 25.831161513948217 
2565 2 2.351984115893865 1 1.2951582454621142 21.699062051570667 12.669255293069515 
976 1 1.4727603053564726 1 16.53278661628855 3.603189618016716 37.45603075153568 
1038 1 1.4519851563888175 1 28.583039671735946 35.44020429625163 15.415642880737442 
1281 1 1.4519333078104855 1 21.264343810263632 7.0382813693438715 13.98821156482986 
1674 1 1.4430560255418807 1 44.404364360744836 18.267295466795893 35.00066043220995 
239 1 1.4403236687223202 1 1.909718831185545 37.64576422642938 20.19742322430868 
393 1 1.439648687732581 1 21.10435179065608 33.49568360503146 35.17127528541988 
2352 1 1.4373340129178058 1 29.34901869259928 44.39075673210203 26.987277772440066 
2222 1 1.4344291991171212 1 51.95852850422382 27.34862671459787 46.02256067759716 
2175 1 1.4332668713331207 1 3.7634699147925548 22.835965243219942 51.906392737766744 
1826 1 1.4270394329622562 1 2.457596464003248 28.76580119340055 35.914565887179315 
1590 1 1.4251446390299434 1 46.504612752649855 44.12062724431875 48.00297683721028 
88 1 1.4241716426315776 1 45.79555736723606 12.652483824921699 47.14056343011239 
1841 1 1.4227495304753008 1 33.99882065986196 17.60016213293756 27.692026924015227 
1340 1 1.4185626885314273 1 47.062882777807374 47.676183464611796 48.94763331821217 
264 1 1.4184693826181705 1 16.413106226785416 28.247637306118413 12.472773229973118 
1304 1 1.4166076948753428 1 15.427419357492479 41.655669354905214 20.86501896922729 
451 1 1.4147449677908335 1 45.49507627234647 48.851980344350466 13.70431294479117 
823 1 1.4133259446866933 1 36.913383204967815 20.30133753189996 18.0541669221087 
394 1 1.412556316531206 1 16.90804271692055 9.27058599745783 33.19824355090337 
348 1 1.4078119795405664 1 14.966453331937762 44.052247206080125 32.54232339753702 
1834 1 1.4074672534860375 1 22.62460655648147 38.93790146011996 43.86212715356581 
313 1 1.4069160095607278 1 18.274844393705692 15.517227239183734 37.69724150844514 
2099 1 1.4059948448738746 1 41.390782084202925 47.03925321365482 36.36953100139545 
1670 1 1.4055721113346678 1 0.7697354123687404 17.949567047980054 33.17551005788031 
502 1 1.4042866349286525 1 32.916958193824634 10.521327011530737 47.269536921047894 
1598 1 1.4030798864589396 1 15.80007262485323 29.456707832360927 48.69321481373124 